########################################
LAMMPS data file

17081 atoms

6 atom types

-10.000000 64.310000   xlo xhi
0.000000   54.310000   ylo yhi
-64.310000 100.000000  zlo zhi

Masses

	1 28
	2 28
	3 28
	4 28
	5 28
	6 12.01

Atoms

1 	4 	0 	0 	-54.31
2 	4 	0 	2.7155  -51.5945
3 	4 	2.7155 	0	-51.5945
4 	4 	2.7155 	2.7155 	-54.31
5 	4 	1.35775 1.35775 -52.9522
6 	4 	1.35775 4.07325 -50.2368
.....
########################################
