########################################
LAMMPS data file

1280 atoms

1 atom types

0.000000 80.500000 xlo xhi
0.000000 80.500000 ylo yhi
0.000000 161.000000 zlo zhi

Masses

1 12.011000

Atoms

1 1 47.125494 40.250000 41.217088
2 1 46.975248 41.679496 41.217088
3 1 45.812391 44.291314 41.217088
.....
1278 1 47.087829 39.531315 119.782912
1279 1 46.788983 42.374644 119.782912
1280 1 46.204352 43.687747 119.782912
########################################
