########################################
YSZ

755 atoms

3 atom types

0.0 20.5200004578 xlo xhi
0.0 20.5200004578 ylo yhi
0.0 20.5200004578 zlo zhi

Masses

1 91.22400
2 15.99940
3 88.90585

Atoms

1 2 -2 1.2825000290 1.2825000290 1.2825000290
2 2 -2 3.8475000860 3.8475000860 1.2825000290
3 2 -2 3.8475000860 1.2825000290 3.8475000860
....
753 3 3 15.3900003430 10.2600002290 15.3900003430
754 3 3 5.1300001140 15.3900003430 15.3900003430
755 3 3 3.12600001290 17.9550004010 17.9550004010
########################################
